     508
 i =      170, E =     -4568.2173459420
  H        10.7165186868        5.9962084428        7.7992908680
  C        10.5510234537        5.7652976263        6.7491958786
  O        10.5173495280        3.7180800918        8.6263985344
  C        10.4755372283        3.3652422865        7.3774278970
  C        10.3869506913        4.4415204353        6.3687047847
  C        10.5163721352        6.7994352441        5.7972600471
  C        10.3158971524        6.4296028632        4.4328353797
  C        10.3703148272        7.4020303207        3.3356571443
  O        10.4439399634        8.6466373528        3.6618894330
  H        10.0026161740        3.0361423074        4.7761159662
  C        10.1483752780        4.0811193415        5.0298093785
  O        10.4994005683        2.1775000875        6.9514302631
  H         9.9506518302        4.8567877263        3.0313101024
  C        10.1166452636        5.0800019605        4.0817328505
  O        10.3757137359        6.9658239978        2.1320020833
 Zr        10.5152046945        2.6745510950       10.5222255865
  H        12.4642146360        2.0347404507        8.6914069363
  O        11.8842879716        1.4600774672        9.2152527584
  O         9.3267380509        1.2755042668        9.3187157984
  H         8.5791914483        2.0407719462       12.3487253517
  O         9.1353946222        1.4712996492       11.7952150023
  O        11.6920407920        1.2473822314       11.7064810164
  H         7.7276539261        9.7089345302        5.6969683194
  C         6.6943114352       10.0013670440        5.5222161816
  O         8.5401983672       10.4442947469        3.5733678032
  C         7.3247991952       10.4065968997        3.1776370008
  C         6.2999820056       10.3541124809        4.2380168685
  C         5.7824324816       10.0253888380        6.5927809530
  C         4.4518694837       10.4406152372        6.2972194323
  C         3.3898713919       10.5163254347        7.3006299888
  O         3.7384948485       10.4669184406        8.5601736381
  H         4.7066551537       10.9817988503        2.9204037737
  C         4.9778745206       10.7223336818        3.9388813556
  O         6.9216261856       10.4522094942        1.9653798932
  H         3.0412350247       11.0575033378        4.8137366091
  C         4.0744142534       10.7651348636        4.9772434231
  O         2.1935389257       10.6195317537        6.8990205623
 Zr        10.4705230759       10.5165046482        2.5215337585
  H        13.1611849144       11.1408376456        5.8066201673
  C        14.2074316439       10.9110497482        5.6164306402
  O        12.3753750613       10.6232748775        3.6084523159
  C        13.5994651884       10.6177660129        3.2398455134
  C        14.6129568771       10.6440875096        4.3119868124
  C        15.1273862786       10.8821136220        6.6779982689
  C        16.4807266455       10.5847444976        6.3593747427
  C        17.5629210188       10.5724713516        7.3554945087
  O        17.2524356184       10.5559939024        8.6103500315
  H        16.2270360461       10.1353987518        2.9699964845
  C        15.9484620275       10.3482012635        3.9974788748
  O        14.0201970686       10.5542782919        2.0320525962
  H        17.9101489934       10.1056891949        4.8435703031
  C        16.8629468576       10.3252478689        5.0281594622
  O        18.7523091614       10.5672631946        6.9033521889
  Y        10.6017128359        0.0088919047        7.8154231655
  O        10.5043971810        3.7094807551       12.4514873383
  O        10.4356289243       12.4088942819        3.5892019506
  O         8.5600239459        3.6468710790       10.4310808383
  O        12.4759417924        3.6019458640       10.6592005325
  O         8.4885886729        0.2290010941        6.9058138803
  O        12.7012055530       21.0024853375        6.9637075427
  O        10.7423205410       18.8442990461        6.8992823878
 Zr         2.7231316728       10.5158464925       10.4682336625
 Zr        18.4325031451       10.4487923726       10.5061680440
 Zr        10.4778747899        7.9485774452        0.1362027088
  Y        10.4020971996       -0.0289439291       13.1657158592
  Y         0.0474704975       10.5781349529        7.7873284021
 Zr        12.9771282947       10.4604249842        0.0960170546
 Zr         8.0116256947       10.4805390186        0.0395997231
 Zr        13.0091618848       -0.0433935861       10.5034104593
 Zr         7.9592802455        0.0008322028       10.4987500666
  O         9.0789532734       19.5496648871        9.0496409544
  O         9.0683827045       11.9163388054        1.4100538205
  O        11.8876143301        9.0704631022        1.5059321933
  O        11.5615555866       19.8918332896        9.5289062018
  O         9.4385529326        9.4440007447        1.1042035303
  O        11.5321098146       11.5428350341        1.0907774524
  H        10.0090355162       15.0837969834        7.6736045337
  C        10.2743529887       15.2980172611        6.6401003153
  O        10.5117386508       17.3057442577        8.5628168996
  C        10.6448052551       17.6536597829        7.3338116476
  C        10.6541722461       16.5872543154        6.3006703806
  C        10.2187833095       14.2771881804        5.6726900681
  C        10.5655664796       14.6225586591        4.3293117785
  C        10.5219446287       13.6463667962        3.2339465289
  H        11.3079289716       17.9417538487        4.7529522308
  C        11.0077249358       16.9236397928        4.9795134146
  H        11.2089761512       16.1473188760        2.9783559223
  C        10.9544819241       15.9395494234        4.0147478884
  O        10.5557451990       14.0510302379        2.0191851571
 Zr        10.4615827050       18.4398778058       10.4820260917
  H         8.5134465730       18.9856814991        8.5003431228
  H        12.4261310901       18.9142182865       12.4739800879
  O        11.8763845948       19.4966254567       11.9283227464
  O         9.3902995599       19.8961973973       11.4619941351
  O        10.3840478284       17.2887614262       12.3958995199
  O        12.4543043241       17.3504674856       10.4275900331
  O         8.4632530282       17.4005960938       10.5436222252
 Zr        10.5036771393       12.9779328669        0.0231764701
  H        10.0750670345        5.9885448999       13.4245191608
  C        10.3513386626        5.7071095375       14.4360956156
  C        10.5722542220        3.3230035299       13.6861715102
  C        10.6749074925        4.3711135793       14.7253429157
  H        10.1020649579        7.6547337688       15.3225363494
  C        10.3666400426        6.6125207594       15.4780357372
  C        10.7023970900        6.2238554368       16.7911549908
  C        10.6326852359        7.2566665858       17.8303241120
  O        10.5568829677        8.4715366304       17.4346523712
  H        11.3010425432        2.9255907151       16.1704762859
  C        11.0492495880        3.9702040074       16.0030739679
  O        10.5519062920        2.1211883615       14.0825448201
  C        11.0842250521        4.8804932855       17.0746151894
  O        10.6210356596        6.8805479340       19.0616971504
  H        13.3039122253        9.6354256811       15.3220708882
  C        14.3412646143        9.9242425382       15.4697440770
  O        12.4714025551       10.2861101127       17.4309525500
  C        13.6913334265       10.3205903335       17.8098597441
  C        14.7277911542       10.2947158653       16.7758664537
  H        14.9605224441        9.6147106079       13.4165661324
  C        15.2415389480        9.9193061958       14.4212859739
  C        16.5678021948       10.2893549301       14.6964440889
  C        17.6169272874       10.2881531493       13.6475206292
  O        17.2555386343       10.3393557154       12.4202058605
  C        16.0730419232       10.6699191334       17.0512411947
  O        14.0758469446       10.4015999418       19.0413135370
  H        18.0125724333       10.9174078960       16.1379825957
  C        16.9709576337       10.6526373691       15.9760911991
  O        18.8149449368       10.2601377571       14.0771362229
 Zr        10.5271187622       10.4021526908       18.4679522595
  H         7.8018519285       10.0856654361       15.2103706692
  C         6.7647248245       10.3688775620       15.3670678291
  O         8.6147705496       10.4454595697       17.3633027988
  C         7.3973112330       10.5777214544       17.7301752970
  C         6.3826271617       10.7090048321       16.6798244944
  H         6.1339209522       10.0897606722       13.3165635311
  C         5.8549194024       10.3666764650       14.3283179846
  C         4.5213365243       10.6924980711       14.6241003510
  C         3.4561035515       10.5575530443       13.6064749722
  O         3.8196814466       10.4893031646       12.3636459461
  C         5.0522621485       11.1336083182       16.9611190558
  O         6.9874855929       10.5647521387       18.9514409933
  H         3.0903014106       11.3388752719       16.0720859046
  C         4.1343755510       11.0895351165       15.8990547980
  O         2.2648872939       10.5097370582       14.0260422583
  O        10.5062335443       12.3057715177       17.3396698467
  O        12.5093356337        0.1143637749       14.0862903889
  O         8.3343576741       21.0757839383       14.0284582060
  O        10.2148563407       18.8072647925       14.0822877900
  Y         0.0967832356       10.3500089493       13.1751514484
  O        11.9206155318       11.8476575892       19.5260968777
  O         9.0975939915        9.0277817634       19.5497939427
  O        11.5335341417        9.3940425346       19.9472054586
  O         9.4756027804       11.4963388014       19.8712195975
  H        10.2545380441       14.9760841806       13.1950396982
  C        10.2715599577       15.2102140433       14.2576807992
  C        10.2831023759       17.6205890116       13.6304050671
  C        10.2751908165       16.5390149957       14.6495909612
  C        10.2941030391       14.1702295491       15.2096655010
  C        10.3422403342       14.5360727797       16.5910721867
  C        10.4307719546       13.5494514876       17.6736989799
  H        10.2992933451       17.9512341463       16.2810309156
  C        10.2997023216       16.9002421415       16.0112019512
  H        10.4053943822       16.1300888249       18.0150360820
  C        10.3438810066       15.8984203234       16.9554059002
  O        10.4511946790       13.9776291842       18.8866062197
  H         8.5081742046       12.4806453921        1.9644726205
  H        12.4413400856        8.5216113754        2.0822256485
  C         5.7732643203        6.6544020060       10.6853787870
  O         3.7422794310        8.5844936480       10.3818148128
  C         3.3571925402        7.3423692046       10.3581261098
  C         4.4187490673        6.3315345281       10.3817949280
  H         7.7482236134        5.7976965180       10.8898800835
  C         6.6996083325        5.6015485683       10.6794529720
  C         6.3047196991        4.2999449529       10.4017646262
  C         7.3361715511        3.2415014090       10.4054020943
  H         2.9968490453        4.8149054405        9.8758587368
  C         4.0432523830        5.0006830936       10.1046997874
  O         2.1453765120        6.9560658457       10.3119214661
  H         4.6977711840        2.9473694466        9.8992570999
  C         4.9676744104        3.9766593718       10.1152805179
  O         6.9381838563        2.0336274154       10.3801168912
  H         5.9004912856       13.4155256588       11.1654287285
  C         5.6313672292       14.4320374053       10.8953726055
  O         3.6908825047       12.4653282683       10.6017027269
  C         3.2653383386       13.6837636344       10.5943635716
  C         4.2977544853       14.7395171144       10.5689209017
  H         7.5970826099       15.2842722968       11.1298383246
  C         6.5544266170       15.4581104158       10.8765296386
  C         6.1868476206       16.7754794267       10.5360279624
  C         7.2501499897       17.7885713531       10.5243644466
  H         2.8665934466       16.2145868982        9.9741215343
  C         3.9083043923       16.0267190804       10.2245674277
  O         2.0445040156       14.0485042001       10.6106319919
  C         4.8362605287       17.0827309734       10.1913786958
  O         6.8689678681       19.0258878569       10.4781031858
  O         6.9269346770        8.5376052795        0.1040659962
  O         6.9183944627       12.4415176664       20.8113030854
 Zr         0.0224997156       13.0043230816       10.5090157412
 Zr         0.0714596849        7.9283779825       10.4800820730
  O         1.5589431076        9.1055523805       11.7681796419
  O         1.5081862733       11.8892272658        9.1856974201
  O         1.3247377422        9.3192530560        9.2864056441
  O         1.3260274709       11.6641581429       11.6845955521
  H         8.5413094010        8.4731488045       18.9815113138
  H        12.4833621385       12.3951520685       18.9576023593
  H        15.0002211400       13.3177239514       10.0359586798
  C        15.2773207536       14.3471290932       10.2385914744
  O        17.2826455589       12.3984949875       10.4893129932
  C        17.6617356950       13.6133098176       10.4940957502
  C        16.6188205804       14.6648287124       10.5099809209
  H        13.3040827136       15.1901970864       10.0078637903
  C        14.3527315979       15.3727950696       10.2292038296
  C        14.7272396504       16.7036782931       10.5008671097
  C        13.6693993765       17.7239038766       10.4708687098
  H        18.0566222900       16.1636453589       11.0081866278
  C        17.0084808866       15.9666172791       10.7964467321
  O        18.8771529869       14.0303332968       10.5010326546
  C        16.0814646260       17.0203514535       10.8155695282
  O        14.0692233272       18.9558873016       10.5035366568
  C        15.2741423466        6.6112282714       10.7898005490
  O        17.3624217571        8.4958317823       10.5385034549
  C        17.7161366941        7.2629817819       10.6062279294
  C        16.6547691450        6.2546333171       10.7199617551
  H        13.2738338063        5.7886482320       10.8192504202
  C        14.3369912953        5.5644242113       10.7819075241
  C        14.7406386044        4.2375588360       10.7202544841
  C        13.7005399670        3.1890769864       10.6611465955
  H        18.1001137435        4.6807587020       10.6668942845
  C        17.0359060496        4.8970684275       10.6980999202
  O        18.9324617831        6.8508024184       10.5440084486
  H        16.3818768116        2.8332562218       10.6594204135
  C        16.1013407034        3.8814625704       10.6959357170
  O        14.0797495565        1.9753761483       10.6144425535
  O        14.0750955742       12.4211364463        0.1140650336
  O        14.0152890183        8.5007531202       20.8746971560
  O        19.4862564113       11.8461694312       11.9412811168
  O        19.5005647236        9.0581190628        9.0565760768
  O        19.8440936800       11.5520740393        9.5242819367
  O        19.8641947641        9.3495484118       11.4770551843
  H         2.1429451036        8.5367370303       12.2935001525
  H         2.0733515328       12.4660302118        8.6480899535
  O         0.1265698500        6.8549711271        8.5219555137
  O        20.9510576964        6.7472585090       12.3143944421
  H        18.9301500620        8.4912987457        8.5151230733
  H        18.9103747649       12.3877177930       12.5022159697
  O         0.1155584419       14.0748304436       12.4819649490
  O        20.8287236915       14.2159408421        8.6961056795
  O         0.3511876441        8.4259870659        6.8956365465
  O        20.7461349104       12.7187960441        6.9967077660
  O         0.2880901681       12.4754430370       14.0917448214
  O        20.9385399285        8.2463044381       14.0224890301
  O         8.5120947539        6.9065261653        0.1796364727
  O        12.4364181860        6.8613019357       20.9908372166
  O        12.4497596104       14.0239819143        0.1087546380
  O         8.5494219158       14.0334256074       20.7442696820
  O         6.8747568447        0.1208388887        8.5109366898
  O         6.7994832647       20.9404696527       12.3654553337
  O        14.1114844534        0.0364704836       12.4694109757
  O        14.1881361033       20.8427435646        8.6710279197
  C         6.3798634853       21.3774000439       15.9762987200
  C         7.1300728362       20.9954348447       13.6092059237
  C         6.0871605355       20.9729492974       14.6370904534
  H         5.5254817025       21.5369809749       17.9540312848
  C         5.3473257451       21.2605714960       16.9177034625
  C         4.0966135989       20.7815682257       16.5578379212
  C         3.0805654931       20.6976566759       17.6266115256
  O         3.5181140543       20.7217946626       18.8301083734
  H         4.6411824569       20.2108067687       13.2576236855
  C         4.8028121243       20.5087207310       14.2914666045
  H         2.8082245026       20.0309014101       14.9909933113
  C         3.7966850733       20.4089774052       15.2349798652
  O         1.8558600735       20.6474412591       17.2683424410
  H        13.2556521339       -0.5597912211       16.1958908997
  C        14.3073597138       -0.3319876132       16.0420779084
  C        13.7168372959        0.0413338947       13.6958412035
  C        14.7418760121       -0.0149906323       14.7604323203
  C        15.1906292772       -0.3323902049       17.1337003951
  C        16.5484448580        0.0010676067       16.8616494252
  C        17.5796404522       -0.0131169737       17.9007148378
  O        17.2122193786       -0.0522205205       19.1370570870
  H        16.3827172108        0.5768987732       13.4826675346
  C        16.0815817629        0.3087786915       14.4912033281
  H        18.0116861099        0.5736824663       15.4074896072
  C        16.9659822267        0.3147808964       15.5509849697
  O        18.7942877480       -0.0125203248       17.4996028436
 Zr         2.5801132821       -0.0106794849       -0.0575424020
 Zr        18.3924085747        0.0458095162        0.1580403279
 Zr        -0.0157430949       -0.1027541274       18.4475657771
  H        13.5935941179       21.6163620344        4.9602096416
  C        14.6238425402       21.3165240122        5.1279583298
  C        13.8848090336       20.9137873085        7.4115893412
  C        14.9762171214       20.9162587360        6.4319347243
  H        15.2934812758       21.6484169495        3.1005076211
  C        15.5464305974       21.3288618715        4.1064902223
  C        16.8621290811       20.9364335614        4.4041044165
  C        17.8695800942       20.9726894358        3.3257704011
  O        17.4160739142       20.9969405454        2.1276087258
  C        16.3073322492       20.5119673633        6.7349253672
  H        18.2741812700       20.2478812437        5.8554846100
  C        17.2405841542       20.5391830244        5.6805650926
  O        19.0970952195       21.0057546435        3.6704113404
  H         7.7646992603       -0.1575807338        4.7383046671
  C         6.7008878611       -0.0154747030        4.9102034220
  C         7.2771356469        0.1627689379        7.2873416059
  C         6.2540961144        0.1605380575        6.2141082376
  C         5.8125649435        0.0030697474        3.8216268017
  C         4.4330584271        0.2087482913        4.1128781489
  C         3.3955292660        0.1798168552        3.0775334387
  O         3.7517252793        0.0714328276        1.8405993232
  H         4.5777494290        0.5246077596        7.5294077416
  C         4.8945794539        0.3698011852        6.5022383410
  H         2.9453897633        0.5617912816        5.6074388490
  C         4.0066160891        0.3957832241        5.4458181369
  O         2.1809957748        0.2294732432        3.4783020697
 Zr         0.2172918289        0.1317645060        2.5244626881
  H         5.7130434404       18.0012166243       19.9312917364
  C         5.5284554083       16.9763864100       20.2465752030
  O         3.6241601473       18.9028572634       20.7572901182
  C         3.2182849460       17.6902936456       20.7916149346
  C         4.2601756325       16.6323485606       20.6982810827
  C         6.5768501247       16.0349099357       20.2151970066
  C         6.2887513575       14.7134290723       20.6708361479
  C         7.3160435166       13.6602165185       20.7375224097
  H         2.9712382214       15.0799261665       21.4740463587
  C         3.9675824266       15.3197732129       21.1147812593
  O         2.0058086285       17.3000666466       20.9296896121
  H         4.8135590966       13.3665801698       21.4395194738
  C         4.9849885427       14.3839975913       21.0961967410
  H         5.9925759517        2.8449992137        0.2525782445
  C         5.6948193741        3.8865155599        0.1742467557
  O         3.6934067713        1.9326151385       -0.1131598370
  C         3.2959145915        3.1490427300       -0.0742029629
  C         4.3327723625        4.2132928688        0.0177604201
  H         7.6772555278        4.7090566255        0.3431107539
  C         6.6158519150        4.9162938349        0.2336960938
  C         6.2296888884        6.2726794963        0.1468061859
  C         7.2884343478        7.2965610781        0.1537359438
  H         2.8620564666        5.7520773077       -0.1616826549
  C         3.9228390803        5.5379084176       -0.0544500024
  O         2.0760134583        3.5401014563       -0.1261214990
  C         4.8445590639        6.6016937583        0.0132871979
 Zr         0.1141332757        2.5263566196       -0.0671542320
 Zr         0.0681156501       18.4144899943        0.1639400757
  O         1.5557797815       19.5425947156        1.4473736185
  O         1.4518166691        1.3451614438       19.3944242035
  O         1.0810565103       19.8002937847       19.8855319663
  O         1.1931276841        1.0992939019        0.9821216444
  H        15.0725946825        2.8776156396       21.3137579223
  C        15.3218911973        3.9037120968       21.0617137100
  O        17.3159398993        1.9807603152       20.9149913484
  C        17.7097578180        3.1933599249       20.7931254362
  C        16.6511630125        4.2357159311       20.7332972379
  H        13.3510149554        4.7106935647       21.3693416250
  C        14.3803119464        4.9140951300       21.0843723210
  C        14.7140131864        6.2500046629       20.7750066134
  C        13.6533334174        7.2636803218       20.8788480299
  H        18.0411818883        5.7518425793       20.1542374496
  C        17.0034020489        5.5359506312       20.3986565361
  O        18.9264228420        3.5895545454       20.7522914814
  C        16.0531433455        6.5782859575       20.3960999016
  C        15.2333045322       17.0552279754        0.5977871818
  O        17.3106112885       18.9902131940        0.4061314479
  C        17.6727548812       17.7534544934        0.3929614774
  C        16.6109587707       16.7304607777        0.4197192329
  H        13.2378637736       16.2153485360        0.6158410778
  C        14.3006586254       16.0041225681        0.5204226248
  C        14.7045812749       14.6910501188        0.3065474006
  C        13.6689970125       13.6329617357        0.1763101181
  H        18.0573630546       15.1858835948        0.1143595746
  C        16.9958406875       15.3869207427        0.2316838180
  O        18.8880663164       17.3524788817        0.3232729363
  H        16.3611285520       13.3291260828        0.0432141298
  C        16.0674479543       14.3648661223        0.1828110341
  O        19.5416968396        1.5120611266        1.4405610588
  O        19.3865480915       19.4433251851       19.6492849270
  O        19.7929480408        1.0268817085       19.8837479659
  O        19.8713728965       19.9250238779        1.1753860331
  H         2.1369275967       19.0065841793        2.0083786986
  H         1.9875165244        1.8879790421       18.7958987400
  O         0.0557657004       17.2754638313       19.1042629097
  O        20.8355337276       17.4659467621        2.1470558754
  H        18.8011812854       18.8718629299       19.1296026253
  H        19.0035646345        2.0937871827        1.9992416745
  O         0.2695958799        3.6848299857        1.8614229776
  O        20.7259581834        3.4584923804       18.7855396334
  O        -0.0605236195       18.8345533057       17.4517509854
  O        20.7205053744        1.7592248336       17.2702312862
  O         0.3012775139        2.0826854109        3.4818879246
  O        20.9556212792       19.1382298673        3.6951989074
  H        20.2644446630        5.5511059352       17.8880722412
  C        20.4337255202        5.3304600857       16.8376967660
  C        20.6834359787        3.0087700241       17.5852746463
  C        20.6314396608        3.9802223967       16.4866518494
  H        20.3416333184        7.3769510906       16.1510511863
  C        20.4800919629        6.3320392868       15.8940558463
  C        20.7371768590        5.9786573149       14.5555174587
  C        20.8760711274        7.0669608634       13.5615178800
  C        20.8426962444        3.6151781034       15.1221596252
  H        21.0837001613        4.4268951938       13.1253697688
  C        20.8971025754        4.6550147436       14.1728116295
  C         0.1253803082       15.1903233400       17.1593174337
  C         0.0077359781       17.6246889406       17.8637799495
  C         0.0232379807       16.5741486307       16.8371122763
  H         0.2540591703       13.2168401346       16.2807392758
  C         0.1695236316       14.2835369047       16.0880619631
  C         0.1079156006       14.7156653309       14.7682603115
  C         0.1701888836       13.6821914276       13.7063279060
  H        -0.1209028055       18.0538005718       15.3015854633
  C        -0.0446907424       16.9865176952       15.4893163938
  H        -0.0458038862       16.3854851758       13.4084504810
  C        -0.0053856759       16.0788636861       14.4493123450
  H         0.6757192794        5.9899904235        2.8401090418
  C         0.4976311766        5.6789989473        3.8652800297
  C         0.2940200860        3.2986361757        3.0798848139
  C         0.2848643436        4.3205624185        4.1556227343
  H         0.6523374003        7.6363837451        4.7483144953
  C         0.4833295647        6.5762699864        4.9151838672
  C         0.2527249671        6.1643314331        6.2463339808
  C         0.2388248281        7.2158294992        7.2750901929
  H        -0.0974460346        2.8261596869        5.6368650190
  C         0.0580516175        3.8870906171        5.4579179503
  C         0.0314730304        4.7873492769        6.5373666815
  H        20.4640460479       15.2751063453        3.0474621369
  C        20.5951803959       15.5534907668        4.0881859136
  C        20.8549436168       17.9134288415        3.3463709525
  C        20.7835198875       16.9035139616        4.4261846385
  H        20.4500947359       13.5662037027        4.8989477703
  C        20.5889001866       14.6234924342        5.1050175016
  C        20.7618474280       15.0015079166        6.4518295990
  C        20.7731106466       13.9067579354        7.4340814412
  H        21.0861799127       18.3653459061        5.9577863825
  C        20.9360139337       17.3084626959        5.7476512891
  C        20.9276172437       16.3726695610        6.7964874259
  N        21.1407577806       16.8089278688        8.0924335842
  H        20.8997428817       16.1316139751        8.8145927624
  H        20.9039835558       17.7771148263        8.2766159362
  N        20.9866505863        2.3159228093       14.6893038789
  H        21.4756463999        2.1833151173       13.8116348735
  H        21.1351603224        1.6193851593       15.4162360271
  N        10.6551901515        8.1022755793        6.2364872793
  H        11.1698810106        8.2198587521        7.1024229961
  H        10.8395489447        8.7855505876        5.5045094575
  N        10.2390822531       12.8729148810       14.7678489963
  H        10.4676792354       12.7011785127       13.7969299172
  H        10.4399941342       12.1515463541       15.4554394219
  N        16.7172364747       20.1253337572        7.9912974657
  H        17.5097396359       19.4956769637        8.0385790278
  H        15.9883662305       19.9739131682        8.6845632714
  N        16.5479645213       18.2916325423       11.1056780630
  H        15.8360733342       18.9879049914       11.3144758874
  H        17.3759995072       18.3221322726       11.6915847150
  N        16.5499923119       11.0203373352       18.3028850075
  H        17.3609400519       11.6302030050       18.3033775780
  H        15.8440991234       11.2168882495       19.0084776334
  N        16.4678590611        7.8424265193       20.0632629151
  H        15.7596417443        8.5606335728       19.9457583038
  H        17.3147120939        7.9308329171       19.5150723181
  N        14.7049640162       -0.6219969546       18.3865349592
  H        15.3843841465       -0.7340397384       19.1341684573
  H        13.8604202254       -1.1785986517       18.4399553248
  N        14.8192261230        7.9042115398       10.8945068613