     256
 i =       85, E =     -2829.7495306549
  C         0.0748019195       10.8419743918        8.7883361352
  C         0.0381628027       12.3208364609        8.7498242586
  C         0.0012094355        6.5308871290        9.0542312026
  C         0.0094472916        8.0258630900        8.9650804980
  C         0.6653429454       10.5945783071       -0.0699121744
  C         0.7167346031        8.1766966041        0.1654279972
  C        10.1508661871        1.2520652284        9.1614599114
  C        10.1627290080       17.7184008703        8.9252286905
  C        10.6513206615        0.6309699039       -0.0368570923
  C        10.5954445333       18.1511325117       -0.0944710573
  C        10.8836286593        0.0266436292        9.0118900438
  C         1.3020218684       10.1022154606        8.7825942999
  C         1.2293190276        8.6922983210        8.8935049750
  C        12.3633890716        0.0042217446        8.9374765271
  C        13.0569614880       14.9085858270       13.9796456787
  C        13.0297005417       14.6867247594        3.7845855316
  C        13.0849958734        3.9460544732       14.0305611130
  C        13.1275011203        3.9739164045        3.7638150789
  C        13.1785001151       13.1719815423       15.8293238325
  C        13.2281747148       13.1551774733        1.8647177807
  C        13.1273426788        5.5854247083       15.9416820130
  C        13.2439479063        5.6028731210        1.9011379825
  C        13.5492913862       15.3123800463       12.7184010316
  C        13.4322776997       15.1859513264        5.0060164838
  C        13.5870597308        3.5525836823       12.8057985326
  C        13.5580166648        3.4632663922        5.0088372129
  C        13.6330009200       13.7337995281       14.5615040463
  C        13.7529934744       13.6661151399        3.1257279755
  C        13.6022361779        5.1202089781       14.6160549823
  C        13.7723515315        5.0492949155        3.1685827799
  C         1.3908418935        9.3896576232        0.0606247002
  C        14.5670343599       14.6090399273       12.0898175635
  C        14.5896510886       14.6384668503        5.5970135946
  C        14.5794972637        4.3021873699       12.1323865775
  C        14.6956293697        4.0849994417        5.6174464734
  C        14.6677114669       13.0412860892       13.8921159253
  C        14.9443630680       13.1307965577        3.7136435838
  C        14.5643875992        5.8887166642       13.9716343283
  C        14.8921650113        5.6624637983        3.7691190652
  C        15.0924020568       15.0970916186       10.7967416690
  C        15.0765961169       15.1282586510        6.9050348762
  C        15.1140356342        3.7748832642       10.8783317245
  C        15.2554297657        3.6412906512        6.8941927979
  C        15.1465123757       13.4623987367       12.6717584495
  C        15.3273444645       13.6416859661        4.9715929942
  C        15.0713238723        5.5183786989       12.7071902046
  C        15.3382884806        5.1680116196        4.9758027179
  C        15.9918685610        9.3685476306       -0.0607282827
  C        17.4716695790        9.3265931811       -0.0020277126
  C        17.7568454151       10.1362732332        8.8606863471
  C        17.7043874151        8.7528445918        8.9365198982
  C        18.1850344177       10.5435936500       -0.0990688265
  C        18.2073565081        8.1046417675        0.1416832652
  C         2.8894982236        9.3970127053        0.0778975226
  C         3.6148964575       13.3559486746       12.7185800876
  C         3.5879679790       13.8056235350        4.8772079235
  C         3.5807654056        5.1607711949       13.2294889216
  C         3.8530492417        5.5373426718        5.6247365415
  C         3.7227941698       15.0068030720       10.8095998401
  C         3.7358166483       15.3194403215        6.7979218379
  C         3.6874144486        3.5888074868       11.3051939865
  C         3.9686001335        3.8923121620        7.4424009968
  C         4.1356754109       12.9611183566       13.9683173507
  C         4.0036762489       13.3011942551        3.6645031403
  C         4.0544379267        5.5762015123       14.4548355011
  C         4.2457133506        6.0674229902        4.3773115827
  C         4.2312902926       14.4748235638       12.0719440267
  C         4.2518602890       14.8875335146        5.4994088879
  C         4.1684690862        4.0243488622       12.6364300726
  C         4.5151960750        4.4528750112        6.1854374381
  C         5.2112839932       13.6266462556       14.5424637026
  C         5.1227359114       13.8941656856        3.0435842989
  C         5.0903623545        4.8841134094       15.1217528091
  C         5.3502170403        5.4382987935        3.7165173831
  C         5.3311068057       15.1248661394       12.6777935492
  C         5.3761968919       15.5021434661        4.8612655270
  C         5.1712611045        3.3067902866       13.2755712440
  C         5.6225318641        3.8533564092        5.5507406274
  C         5.7110897586       13.1328057454       15.8480062486
  C         5.6241540977       13.3116860766        1.7780762858
  C         5.5894123344        5.4823529559       16.3601164754
  C         5.8036152345        5.8745372815        2.4004188259
  C         5.8300084692       14.7181490273       13.8990178537
  C         5.7881194102       14.9697817668        3.6177076354
  C         5.6506113443        3.6997901473       14.5451108647
  C         6.0207944631        4.3545594943        4.3285473838
  C         6.5533900202       -0.0419275967        9.1076824572
  C         8.0540283317       -0.0204356520        9.0915426605
  C         8.2350046486        0.6782168079        0.2134044427
  C         8.1576979596       18.1706813207        0.1536610623
  C         8.7344772103        1.1887005023        9.1923514608
  C         8.7765137709       17.6761759555        8.9616478246
  C         9.4490212660        1.3541449877        0.1177835125
  C         9.4333288935       15.9576254974       -0.0992254156
  C         9.3769169982       17.4374753115       -0.0133861430
  C         9.4377067502        2.8522082025        0.1726160074
  H        10.7380298607       16.8009583790        8.8217578308
  H        11.5957477807        1.1631136633       -0.1082598156
  H        11.5067489824       17.5679955458       -0.2081182075
  H        12.1352580829       15.0609059640        3.2938436312
  H        12.3251016872        3.3718693401       14.5520265164
  H        12.2643004634        3.5345248524        3.2685927220
  H        13.1386781649       16.1951414845       12.2332396508
  H        12.8832735103       15.9697661565        5.5186099628
  H        13.2390562921        2.6407636878       12.3278084305
  H        15.0691595567       12.1568569011       14.3794504833
  H        14.9247336050        6.7936803922       14.4558484036
  H        15.3702419475        6.5050513277        3.2791287009
  H        15.9456142320       12.9428674319       12.1523104374
  H        16.2172679703       13.2580832582        5.4653325097
  H        16.2002281361        5.6015400106        5.4762445975
  H        16.8414125339       10.7235419583        8.8575839941
  H        16.7564026697        8.2235738175        8.9770949685
  H         2.1484032172        8.1098387313        8.9121518753
  H         2.7357831132       13.3785103668        5.3988996834
  H         2.7884935088        5.6880759427       12.7074559398
  H         3.0004832531        5.9614655015        6.1506058767
  H         3.6966871341       12.1180463693       14.4973531347
  H         3.5075771384       12.4623957467        3.1861967697
  H         3.6579478302        6.4650461032       14.9384180655
  H         5.7691905130       15.9655962040       12.1464627432
  H         5.5876920426        2.4286646993       12.7864995016
  H         6.1208421943        3.0093078157        6.0174782902
  H         6.6760089468       15.2113405265       14.3678103761
  H         6.6464876783       15.3985351360        3.1051097821
  H         6.8588879577        3.9188543549        3.7914718170
  H         7.3221576219        1.2567600613        0.3424391717
  H         8.2373722149       16.7356046056        8.8912283926
  H         8.1633413423        2.1092570294        9.2966665309
  O        -0.0058929180       15.1185492433       10.0452940493
  O        -0.0693237898       15.2280462241        7.5789014332
  O        -0.0671382816        3.6864820458       10.3034928671
  O         0.1705186099        3.7172047218        7.8461257230
  O        10.5529924260       15.3680027873       -0.1493193396
  O        10.5813689295        3.4556244641        0.0463631336
  O         1.1488445605       12.9730976420        8.6975675881
  O         1.1330903869        5.9414593841        9.2099009180
  O        11.5469251249       11.5295532707       -0.1200909560
  O        11.5080147669        7.2082424093       -0.0477267125
  O        12.1462283396       13.7126380289        1.4027464347
  O        12.1917148537       13.7686058347       16.4347357396
  O        12.2590743578        4.9687746628        1.3452224430
  O        12.0855208836        4.9855341500       16.4369436570
  O        13.0059643550        1.1073740020        8.9213866309
  O        12.9614296361       17.7522555636        8.8838859919
  O        13.1316825644        9.4337601195        1.1233791141
  O        13.1358950991        9.3389545894       16.5939006949
  O        13.8263716953       12.2004648032        1.2693695668
  O        13.7512968343       12.1333258346       16.2891054174
  O        13.7722513326        6.6558308110        1.4487761849
  O        13.7527820920        6.5237617232       16.5057751629
  O        14.4733080064       16.0978332934       10.2531014909
  O        14.4699936493       16.1635651520        7.4053350762
  O        14.5896872950        2.6723639184       10.4271740891
  O        14.6403478655        2.6791463551        7.5178990991
  O        15.2215096597       -0.1361670768       10.1664346507
  O        15.2298258233       -0.0608537105        7.6449567427
  O        15.3975431025       10.5028353604       -0.1121457841
  O        15.3476265623        8.2434409379       -0.0573589261
  O        16.1073177748       14.5231483366       10.3129900942
  O        16.0408286002       14.5265741191        7.4486158303
  O        16.0549657642        4.3860271917       10.2751010341
  O        16.3020720660        4.2054366086        7.3460887954
  O        16.6928824691       16.7510051738        8.8534876296
  O        16.8512035352        2.0501766700        8.9810357006
  O        17.7958807036       12.9070664980        8.7872074838
  O        17.7867038511        5.9222481108        8.9651442138
  O         2.1062824804       16.8178117724        8.9122376638
  O         2.2157409673        2.0956032121        9.1297583925
  O         2.7294907548       14.4530292278       10.2382602805
  O         2.7426193448       14.6972748223        7.2973551333
  O         2.6917956449        4.1919235341       10.8131905560
  O         2.9815177439        4.4623009182        7.9759153234
  O         3.4785413281       10.5323155250       -0.0515813109
  O         3.5014719968        8.2833263344        0.2167673539
  O         3.6715811381       -0.0459013027       10.3270977807
  O         3.7489086462        0.1367587398        7.8135544817
  O         4.3253900635       16.0512149544       10.3184115353
  O         4.3223136315       16.3149817307        7.3936618655
  O         4.3269843684        2.6162172746       10.7357164021
  O         4.5448159903        2.8208220146        7.9011890759
  O         5.0296809316       12.3079040735        1.3012698670
  O         5.1383327109       12.1368047083       16.3683490838
  O         5.1957539439        6.8191553481        1.8007411619
  O         5.0267907287        6.5302405876       16.8104384606
  O         5.7246230912        9.5219694288        1.2833963475
  O         5.7168089153        9.3401040059       16.7590388882
  O         5.9469170692        1.1019279113        9.2450429841
  O         5.9584828113       17.7550529114        8.9774563290
  O         6.6629639826       13.8801223600        1.2450532323
  O         6.7171886550       13.7682871309       16.3653047911
  O         6.8254805577        5.2480877459        1.8878432334
  O         6.6071514213        4.9177424352       16.9415273709
  O         7.3383700828       11.5776981998       -0.0536064845
  O         7.3528046543        7.2865034438        0.1643072473
  O         8.2920119623       15.3118766791       -0.1231029688
  O         8.3323997833        3.4483521518        0.3258134863
  O         9.3714296669       13.1210552628        1.1742054451
  O         9.3888829577       13.0668323502       16.5855131420
  O         9.6051186037        5.7172483412        1.3882755528
  O         9.3867705922        5.6585563463       16.8111961932
 Ti        10.9664472607       13.1838769808       -0.0582253256
  W        10.7719642108        5.5714347569        0.0077242437
 Ti        13.2888346668       10.7574418429       -0.1822372166
 Ti        13.2975259696        8.0645898878       -0.0420388181
 Ti         1.3319600439       15.0918115745        8.7507006240
 Ti         1.3650578953        3.9014913446        9.2235285228
 Ti        15.1934888704        1.4674034476        9.0024038234
  W        15.0768720654       17.5210761495        8.8538312886
 Ti        17.5464491917       14.9392531630        8.8538643683
 Ti        17.5904970251        3.8039593165        8.9189896308
  W         3.8348878473        1.3284222440        9.1565650784
 Ti         3.7725088795       17.3769737691        8.9981396594
 Ti         5.5203744593       10.7510836018       -0.0329098289
 Ti         5.6129376865        8.0605859349        0.1351302121
  W         8.1014763107       13.1981312348       -0.1056852247
 Ti         7.9234187676        5.6310175758        0.3232472118
  N         3.5661199742        7.1262736471        3.8607798831
  H         3.8286622402        7.4879676497        2.9470847542
  H         2.7855214030        7.5189828353        4.3698127661
  N         6.0520084356       16.5630621186        5.3852382707
  H         6.9001356208       16.8828503430        4.9365721378
  H         5.8073357226       16.8963494799        6.3141528330
  N        15.7179683447       12.1835895385        3.1162410703
  H        15.3915128589       11.7503874724        2.2551356396
  H        16.4964106120       11.7855539007        3.6249773965
  N        12.8583222433        2.4365729439        5.5735816099
  H        12.1722643387        1.9479194643        5.0130382185
  H        13.2233634809        1.9988265497        6.4150283279
  N         6.5912959838        2.9281461691       15.1690325824
  H         7.0551649209        3.3101789276       15.9905409823
  H         7.0680777437        2.2192784936       14.6258577899
  N         2.5810043024       12.6490829038       12.1754224070
  H         2.0807767933       11.9961255965       12.7656300361
  H         2.1179836658       13.0381240507       11.3565797266
  N        12.0902173521       15.6583808304       14.5796157469
  H        11.6735995829       15.3358425010       15.4490082186
  H        11.6722301525       16.4253737838       14.0698376064
  N        15.9766455380        6.3256640025       12.0872691422
  H        16.3649408573        7.1113919074       12.5927386712
  H        16.4285985149        5.9911369283       11.2383329247
  N        10.7579673442        2.4666026486        9.3042646210
  H        10.1965466502        3.3078409709        9.2766484199
  H        11.7650100044        2.5182741332        9.1642878778
  N         2.5269743263       10.6942096141        8.6483720594
  H         2.5714377412       11.7104327121        8.6930244784
  H         3.3585228145       10.1495380991        8.8383575749
  H         1.2960678561        7.2608101872        0.2660310486
  N        17.6068017232        6.8850611512        0.2881219632
  H        16.6023308338        6.8242147896        0.1367951976
  H        18.1741677077        6.0488261479        0.2355556973
  H        17.6022686762       11.4558084831       -0.2070292541
  H         1.1991126636       11.5373891294       -0.1484955574
  N         6.9360717109       17.5709098789        0.3009711380
  H         6.1034109012       18.1440218988        0.2465365958
  H         6.8667395209       16.5742851455        0.1085243737
