264
Properties=species:S:1:pos:R:3:Z:I:1 i=1, E=-2810.06041946 pbc="F F F"
C       0.10619764      10.85089701       8.81737848        6
C       0.06156523      12.31976973       8.74750192        6
C       0.01401677       6.58414537       9.19229222        6
C       0.02996390       8.06495323       9.07973909        6
C       0.65184920      10.58352696      -0.13731441        6
C       0.70328076       8.15741428       0.12046788        6
C      10.16308836       1.28671471       9.38451158        6
C      10.18303747      17.75959087       9.00189071        6
C      10.63978986       0.62532717       0.08466541        6
C      10.59304544      18.15116767      -0.01826536        6
C      10.88687196       0.06906649       9.16801816        6
C       1.33723237      10.11877528       8.85814927        6
C       1.25745439       8.71649956       9.02378623        6
C      12.35426975       0.02909323       9.09742918        6
C      13.19831194      15.02311331      14.02597885        6
C      13.02839803      14.55714125       3.80926759        6
C      12.88543341       4.14364628      13.81785515        6
C      13.25078507       3.93239169       3.63358096        6
C      13.24671443      13.30930596      15.90215222        6
C      13.19702426      12.99942970       1.90769502        6
C      12.89158042       5.75586854      15.74956273        6
C      13.35045444       5.56290920       1.76048659        6
C      13.69180662      15.39449269      12.75425641        6
C      13.46451972      15.09785228       5.00242565        6
C      13.43783864       3.72962265      12.61939177        6
C      13.67173155       3.42357906       4.88511810        6
C      13.75559159      13.85565369      14.63874217        6
C      13.75136222      13.53717519       3.14923694        6
C      13.40108567       5.30657839      14.42640169        6
C      13.88469756       5.02008141       3.04465238        6
C       1.36567142       9.37679204       0.03105106        6
C      14.71104229      14.67624634      12.13852051        6
C      14.65113946      14.58866711       5.57059044        6
C      14.47087738       4.45488738      11.98025179        6
C      14.79523487       4.05098305       5.51686571        6
C      14.79806129      13.15314436      13.98992035        6
C      14.97178534      13.04169196       3.71169706        6
C      14.40257305       6.05426471      13.81296252        6
C      14.98876820       5.64100969       3.67032114        6
C      15.20275858      15.12305518      10.80572463        6
C      15.16213364      15.14352031       6.84635179        6
C      15.05900878       3.88237272      10.75747792        6
C      15.32965768       3.58539652       6.80198160        6
C      15.28923211      13.55016917      12.76149980        6
C      15.38390248      13.58507977       4.94861657        6
C      14.94615256       5.67102718      12.56536448        6
C      15.43063486       5.14396929       4.88246184        6
C      16.00356620       9.34492334      -0.18627640        6
C      17.47206640       9.30444371      -0.12213974        6
C      17.78040911      10.15967529       8.88781885        6
C      17.72220523       8.78169440       8.99556793        6
C      18.17606237      10.52808901      -0.20373862        6
C      18.19781808       8.07811678       0.03807532        6
C       2.85176853       9.39228710       0.09718860        6
C       3.65242416      13.21772303      12.46201107        6
C       3.51450315      13.98553136       4.64343491        6
C       3.37107463       4.97096811      13.63305254        6
C       3.85229902       5.66573742       5.92420272        6
C       3.82371024      14.88071667      10.54204608        6
C       3.74155196      15.53973354       6.55484665        6
C       3.46131875       3.36520964      11.69691523        6
C       4.00603734       4.04473953       7.79891238        6
C       4.18710464      12.76114019      13.68771191        6
C       3.90516650      13.45674143       3.42711319        6
C       3.87698749       5.39887513      14.84858264        6
C       4.25177516       6.19107424       4.67198234        6
C       4.33195140      14.28711897      11.79163522        6
C       4.21926149      15.04803082       5.25838928        6
C       3.93254084       3.82307675      13.03401098        6
C       4.53613659       4.61239402       6.52135917        6
C       5.33647604      13.32571247      14.22803451        6
C       5.04017214      14.00055841       2.78656498        6
C       4.92168237       4.71176913      15.50862173        6
C       5.39448555       5.60452591       4.03485869        6
C       5.50443432      14.83178262      12.36230878        6
C       5.36313753      15.60852154       4.60283761        6
C       4.94512374       3.11037445      13.67099956        6
C       5.67099798       4.04438464       5.90060636        6
C       5.84752767      12.81932011      15.53023236        6
C       5.53574478      13.41325358       1.50551923        6
C       5.47387145       5.30711950      16.74178396        6
C       5.87931478       6.05957319       2.72579777        6
C       6.01525466      14.36920652      13.56177485        6
C       5.74534071      15.05492389       3.35766303        6
C       5.45582260       3.51836867      14.92453301        6
C       6.08050876       4.54667322       4.67831980        6
C       6.59992537      -0.00504849       9.22478596        6
C       8.08702349       0.00439447       9.22203876        6
C       8.21175226       0.65402738       0.33563706        6
C       8.14146494      18.15257354       0.21011490        6
C       8.75078615       1.21304489       9.40467069        6
C       8.80073888      17.70837679       9.02085856        6
C       9.42813279       1.32636583       0.26218798        6
C       9.41587899      15.98027987      -0.13175732        6
C       9.37130056      17.44291377       0.02118319        6
C       9.43657550       2.81089629       0.33788611        6
H      10.77203842      16.85686067       8.84912655        1
H      10.92489558      11.00369134      -0.98807578        1
H      10.93201616       7.85619435       0.81792076        1
H      11.57749941       1.17303281       0.02916600        1
H      11.50627032      17.57229472      -0.14720080        1
H      12.10791135      14.90040472       3.34132940        1
H      12.09055805       3.58625600      14.30759732        1
H      12.39842785       3.48244118       3.12564614        1
H      13.27672475      16.26222798      12.24286100        1
H      12.92029435      15.88966664       5.51072411        1
H      13.09680459       2.81541317      12.13804904        1
H       1.64272051       1.69601291       8.34654323        1
H       1.55667248      17.25522704       9.65584119        1
H      15.19604484      12.27429803      14.49283278        1
H      14.76556029       6.95412243      14.30811781        1
H      15.46290138       6.49642752       3.19571018        1
H      16.09184743      13.01437329      12.26108077        1
H      16.29922700      13.23133363       5.42133410        1
H      16.28343097       5.59083652       5.39023295        1
H      16.86953471      10.75509006       8.85332698        1
H      16.77357946       8.25070453       9.02622497        1
H      17.46686405       1.63108354       9.79363582        1
H      17.41060577      17.43723333       9.36381242        1
H       2.17161200       8.12702234       9.08763562        1
H       2.64440878      13.59294536       5.16604148        1
H       2.57199147       5.50642561      13.12606639        1
H       2.97406876       6.07216636       6.42454277        1
H       3.69401921      11.95272143      14.22683115        1
H       3.36843266      12.63464874       2.96008297        1
H       3.49264219       6.29882815      15.32497162        1
H       5.99192758      15.64191496      11.82275459        1
H       5.34956365       2.22294499      13.18511704        1
H       6.19022424       3.22046212       6.38409171        1
H       6.91785437      14.78797875      13.99972355        1
H       6.61951985      15.44707688       2.83948821        1
H       6.94884803       4.13142380       4.17007228        1
H       7.29700884       1.22752485       0.48215813        1
H       7.85986202      11.02627184       0.77285236        1
H       7.85642795       7.66688861      -0.58440420        1
H       8.25961721      16.77548575       8.88261185        1
H       8.16484538       2.11803327       9.56077113        1
O       0.10513220      15.28032298       9.89750405        8
O      -0.06625318      15.06786658       7.44555204        8
O      -0.21837342       3.70790451      10.36345851        8
O       0.28337108       3.81779943       7.95530276        8
O      10.55113465      15.38304306      -0.05104901        8
O      10.53420510       3.41260243       0.07488309        8
O       1.17390523      12.96416110       8.59872062        8
O       1.09732257       5.98760563       9.52110256        8
O      11.45220966      11.43026631      -0.28676999        8
O      11.40429489       7.37529451       0.11251319        8
O      12.07574239      13.47871559       1.48439401        8
O      12.30422637      13.91160507      16.52908656        8
O      12.40784065       4.93883074       1.17461164        8
O      11.81723879       5.22569330      16.20766371        8
O      13.00997722       1.13907909       9.12891916        8
O      12.93769271      17.79046722       9.01004186        8
O      13.15466202       9.42887242       1.05596024        8
O      13.13643518       9.37202701      16.52478557        8
O      13.81463012      12.07495722       1.28067523        8
O      13.77210316      12.20858518      16.32458760        8
O      13.87951370       6.64831531       1.32990502        8
O      13.55230183       6.64831864      16.36767994        8
O      14.55853957      16.04634060      10.21031220        8
O      14.60995438      16.21167153       7.29237060        8
O      14.60984248       2.73489390      10.38042822        8
O      14.70029901       2.69372740       7.46695947        8
O      15.38541357      -0.09399413      10.09389656        8
O      15.01498355       0.03596282       7.65879771        8
O      15.41371612      10.48692573      -0.23376085        8
O      15.35373667       8.22978164      -0.18029956        8
O      16.24942556      14.54695961      10.34250286        8
O      16.12103196      14.54735990       7.42539669        8
O      15.98272337       4.50861625      10.12756968        8
O      16.44146227       4.08895457       7.22949910        8
O      16.87225592      16.84551834       8.80939342        8
O      16.97929102       2.00881485       9.03755569        8
O      17.83709214      12.91205165       8.86865259        8
O      17.81544435       5.98233288       8.93575401        8
O       2.05115027      16.90517362       8.89154766        8
O       2.06257768       2.05879929       9.14968991        8
O       2.78645054      14.36603149       9.99455579        8
O       2.73314183      14.93284117       7.09459366        8
O       2.46203248       3.97887842      11.17097247        8
O       3.00854414       4.61599910       8.34384768        8
O       3.44795710      10.50365943      -0.12767893        8
O       3.45656069       8.29384255       0.36602672        8
O       3.72051156      -0.22482590      10.34525117        8
O       3.83022449       0.22646581       7.92895728        8
O       4.44075483      15.89767485      10.04628145        8
O       4.30608374      16.53478042       7.12455410        8
O       4.06270117       2.39770571      11.13521195        8
O       4.58337758       2.99759745       8.26421693        8
O       4.93575670      12.37415242       1.05715288        8
O       5.26903069      11.83287825      16.08664660        8
O       5.28464982       7.01545292       2.11771568        8
O       4.93558291       6.39378053      17.17625895        8
O       5.68973729       9.61202631       1.31309812        8
O       5.67115199       9.17549727      16.82978417        8
O       5.99037634       1.09475887       9.47210878        8
O       6.00844446      17.79199358       8.96940593        8
O       6.53384339      13.96804414       0.94087843        8
O       6.86404534      13.41824391      16.02914839        8
O       6.91250179       5.47128357       2.21530676        8
O       6.46879816       4.74759423      17.32482814        8
O       7.39629510      11.42479134       0.01234379        8
O       7.40112327       7.34211226       0.21574820        8
O       8.31156739      15.34911479      -0.34293117        8
O       8.34173910       3.40964796       0.63917542        8
O       9.32395973      13.16228411       1.05753814        8
O       9.56145266      13.10297924      16.54066612        8
O       9.65632946       5.67593884       1.49658099        8
O       9.16553225       5.59045727      17.02494845        8
Ti      10.80042927      13.34280054      -0.02263479       22
Ti      10.73793755       5.44583431      -0.00723601       22
Ti      13.37362281      10.75835047      -0.30149730       22
Ti      13.30808461       8.04703528      -0.06414985       22
Ti       1.37804969      15.00650376       8.52266702       22
Ti       1.35375446       3.95284730       9.48603869       22
Ti      15.07514236       1.32212028       9.01681956       22
Ti      14.93738191      17.51909242       8.78209794       22
Ti      17.57855354      14.95260919       8.83319498       22
Ti      17.60741409       3.94887720       8.84149473       22
Ti       3.96274837       1.35296622       9.32517394       22
Ti       3.96621475      17.55236378       8.96842466       22
Ti       5.48070329      10.74430851      -0.07358349       22
Ti       5.49970504       8.03880702       0.27746554       22
Ti       8.10179912      13.30674825      -0.31935366       22
Ti       8.08086410       5.44798271       0.60898618       22
N       3.52528749       7.20101732       4.11228650        7
H       3.86493106       7.62622646       3.25116292        1
H       2.80672352       7.65845869       4.65978913        1
N       6.10329863      16.61888394       5.14275387        7
H       6.83537521      17.04916982       4.59116835        1
H       5.76676311      17.06734590       5.99359696        1
N      15.74817038      12.10044485       3.10230439        7
H      15.38913063      11.64207377       2.26597931        1
H      16.52556909      11.69679802       3.61036012        1
N      12.98217943       2.38242382       5.44205494        7
H      12.36121796       1.84625125       4.84709738        1
H      13.37408050       1.93836636       6.27091201        1
N       6.41076625       2.75217547      15.54315177        7
H       6.89863661       3.18657207      16.32786085        1
H       6.91523210       2.07927305      14.97632081        1
N       2.53416769      12.60451621      11.96016501        7
H       1.97709786      12.04438653      12.59577607        1
H       2.07140566      13.06505586      11.17705854        1
N      12.23817955      15.79107749      14.62440391        7
H      11.79627019      15.42349097      15.46653315        1
H      11.74990584      16.48002357      14.06449372        1
N      15.87904564       6.46724688      11.96107795        7
H      16.31874673       7.20066762      12.50445479        1
H      16.35801560       6.09096875      11.14276706        1
N      10.76988403       2.49033191       9.60392413        7
H      10.20592457       3.33196678       9.61384098        1
H      11.77427157       2.56090002       9.44875194        1
N       2.56826772      10.69909140       8.72080950        7
H       2.61883318      11.71616981       8.75130361        1
H       3.38271022      10.16651912       9.00534950        1
H       1.28799820       7.24699469       0.24738522        1
N      17.59807073       6.85651887       0.11289796        7
H      16.58223722       6.79972550       0.07204058        1
H      18.15769674       6.02896068       0.27691831        1
H      17.58811846      11.43661346      -0.32392879        1
H       1.19214577      11.52447456      -0.20755033        1
N       6.92667352      17.53406632       0.32741065        7
H       6.08854446      18.10398249       0.30814005        1
H       6.85941558      16.55009608       0.07071478        1
